
                                 *****************
                                 * O   R   C   A *
                                 *****************

                                            #,                                       
                                            ###                                      
                                            ####                                     
                                            #####                                    
                                            ######                                   
                                           ########,                                 
                                     ,,################,,,,,                         
                               ,,#################################,,                 
                          ,,##########################################,,             
                       ,#########################################, ''#####,          
                    ,#############################################,,   '####,        
                  ,##################################################,,,,####,       
                ,###########''''           ''''###############################       
              ,#####''   ,,,,##########,,,,          '''####'''          '####       
            ,##' ,,,,###########################,,,                        '##       
           ' ,,###''''                  '''############,,,                           
         ,,##''                                '''############,,,,        ,,,,,,###''
      ,#''                                            '''#######################'''  
     '                                                          ''''####''''         
             ,#######,   #######,   ,#######,      ##                                
            ,#'     '#,  ##    ##  ,#'     '#,    #''#        ,####,    ,#,          
            ##       ##  ##   ,#'  ##            #'  '#       #'       ,# #          
            ##       ##  #######   ##           ,######,      #####,      #          
            '#,     ,#'  ##    ##  '#,     ,#' ,#      #,     #,   #      #          
             '#######'   ##     ##  '#######'  #'      '#     '####' #    #          



                #########################################################
                #                        -***-                          #
                #          Department of theory and spectroscopy        #
                #                                                       #
                #                      Frank Neese                      #
                #                                                       #
                #     Directorship, Architecture, Infrastructure        #
                #                    SHARK, DRIVERS                     #
                #        Core code/Algorithms in most modules           #
                #                                                       #
                #        Max Planck Institute fuer Kohlenforschung      #
                #                Kaiser Wilhelm Platz 1                 #
                #                 D-45470 Muelheim/Ruhr                 #
                #                      Germany                          #
                #                                                       #
                #                  All rights reserved                  #
                #                        -***-                          #
                #########################################################


                         Program Version 6.1.0-f.0  -   RELEASE   -


 With contributions from (in alphabetic order):
[Max-Planck-Institut fuer Kohlenforschung]                               
  Daniel Aravena         : Magnetic Suceptibility                        
  Michael Atanasov       : Ab Initio Ligand Field Theory (pilot matlab implementation)
  Alexander A. Auer      : GIAO ZORA, VPT2 properties, NMR spectrum      
  Ute Becker             : All parallelization in ORCA, NUMFREQ, NUMCALC 
  Giovanni Bistoni       : ED, misc. LED, open-shell LED, HFLD           
  Dmytro Bykov           : pre 5.0 version of the SCF Hessian            
  Marcos Casanova-Páez   : Triplet and SCS-CIS(D). UHF-(DLPNO)-IP/EA/STEOM-CCSD. UHF-CVS-IP/STEOM-CCSD   
  Vijay G. Chilkuri      : MRCI spin determinant printing, contributions to CSF-ICE 
  Pauline Colinet        : FMM embedding                                 
  Dipayan Datta          : RHF DLPNO-CCSD density                        
  Achintya Kumar Dutta   : EOM-CC, STEOM-CC                              
  Nicolas Foglia         : Exact transition moments, OPA infrastructure, MCD improvements    
  Dmitry Ganyushin       : Spin-Orbit,Spin-Spin,Magnetic field MRCI      
  Miquel Garcia-Rates    : C-PCM and meta-GGA Hessian, CCSD/C-PCM, Gaussian charge scheme 
  Tiago L. C. Gouveia    : GS-ROHF, GS-ROCIS                             
  Yang Guo               : DLPNO-NEVPT2, F12-NEVPT2, CIM, IAO-localization        
  Andreas Hansen         : Spin unrestricted coupled pair/coupled cluster methods 
  Ingolf Harden          : AUTO-CI MPn and infrastructure                
  Benjamin Helmich-Paris : MC-RPA, TRAH-(SCF,CASSCF), AVAS, COSX integrals, SCF dyn. polar., MC-PDFT, srDFT 
  Lee Huntington         : MR-EOM, pCC                                   
  Robert Izsak           : Overlap fitted RIJCOSX, COSX-SCS-MP3, EOM     
  Riya Kayal             : Wick's Theorem for AUTO-CI, AUTO-CI UHF-CCSDT 
  Emily Kempfer          : AUTO-CI RHF CISDT and CCSDT, approximate NEVPT4
  Christian Kollmar      : KDIIS, OOCD, Brueckner-CCSD(T), CCSD density, CASPT2, CASPT2-K, improved NEVPT2 
  Axel Koslowski         : Symmetry handling                             
  Simone Kossmann        : meta-GGA functionals, TD-DFT gradient, OOMP2, (MP2 Hessian; deprecated post 5.0) 
  Lucas Lang             : DCDCAS, Hyperfine gauge corrections, ICE-SOC+SSC
  Marvin Lechner         : AUTO-CI (C++ implementation), FIC-MRCC        
  Spencer Leger          : CASSCF response                               
  Dagmar Lenk            : GEPOL surface, SMD, ORCA-2-JSON               
  Dimitrios Liakos       : Extrapolation schemes; Compound Job, Property file
  Dimitrios Manganas     : Further ROCIS development; embedding schemes. LFT, Crystal Embedding 
  Dimitrios Pantazis     : SARC Basis sets                               
  Anastasios Papadopoulos: AUTO-CI, single reference methods and gradients 
  Taras Petrenko         : pre 6.0 DFT Hessian and TD-DFT gradient,  ECA, NRVS 
  Petra Pikulova         : Analytic Raman intensities                    
  Peter Pinski           : DLPNO-MP2, DLPNO-MP2 Gradient                 
  Shashank Vittal Rao    : ES-AILFT, MagRelax                            
  Christoph Reimann      : Effective Core Potentials                     
  Marius Retegan         : Local ZFS, SOC                                
  Christoph Riplinger    : Optimizer, TS searches, QM/MM, DLPNO-CCSD(T), (RO)-DLPNO pert. Triples 
  Michael Roemelt        : Original ROCIS implementation, recursive CI coupling coefficients
  Masaaki Saitow         : Open-shell DLPNO-CCSD energy and density      
  Barbara Sandhoefer     : DKH picture change effects                    
  Yorick L. A. Schmerwitz: GMF and freeze-and-release deltaSCF, NEB S-IDPP initial path                    
  Kantharuban Sivalingam : CASSCF convergence/infrastructure, NEVPT2, NEVPT3, NEVPT4(SD), FIC-MRCI and CEPA variants
  Bernardo de Souza      : ESD, SOC TD-DFT                               
  Georgi L. Stoychev     : AutoAux, RI-MP2 NMR, DLPNO-MP2 response, X2C  
  Van Anh Tran           : RI-MP2 g-tensors                              
  Willem Van den Heuvel  : Paramagnetic NMR                              
  Zikuan Wang            : NOTCH, Electric field optimization            
  Frank Wennmohs         : Technical directorship and infrastructure     
  Hang Xu                : AUTO-CI-Response properties                   
                                                                         
[FACCTs GmbH]                                                            
  Markus Bursch, Nicolas Foglia, Miquel Garcia-Rates, Ingolf Harden, Hagen Neugebauer, Anastasios Papadopoulos, 
  Christoph Riplinger, Bernardo de Souza, Georgi L. Stoychev                                                    
                                                                 
  APM, various basis sets, CI-OPT, improved COSX, DLPNO-Multilevel,           
  DOCKER, DRACO, updates on ESD, Fragmentator, GOAT, IRC, LR-CPCM, L-BFGS, MBIS, meta-GGA TD-DFT gradient, ML-optimized integration grids, 
  MM, NACMEs, nearIR, NEB, NEB-TS, NL-DFT gradient (VV10), 2- and 3-layer-ONIOM, interface openCOSMO-RS, QMMM,   
  Crystal-QMMM, RESP, rigid body optimization, SF, symmetry and pop. for TD-DFT, various functionals, SOLVATOR                                   
                                                                         
[Other institutions]                                                     
  V. Asgeirsson          : NEB                                           
  Christoph Bannwarth    : sTDA-DFT, sTD-DFT, PBEh-3c, B97-3c, D3        
  Giovanni Bistoni       : ETS/NOCV, ADLD/ADEX, COVALED                  
  Martin Brehm           : Molecular dynamics                            
  Ronald Cardenas        : ETS/NOCV                                      
  Martina Colucci        : COVALED                                       
  Sebastian Ehlert       : rSCAN, r2SCAN, r2SCAN-3c, D4, dhf basis sets  
  Marvin Friede          : D4 for Fr, Ra, Ac-Lr                          
  Lars Goerigk           : TD-DFT with DH, B97 family of functionals     
  Stefan Grimme          : VdW corrections, initial TS optimization, DFT functionals, gCP, sTDA/sTD-DF 
  Waldemar Hujo          : DFT-NL                                        
  H. Jonsson             : NEB                                           
  Holger Kruse           : gCP                                           
  Marcel Mueller         : wB97X-3c, vDZP basis set                      
  Hagen Neugebauer       : wr2SCAN, Native XTB                           
  Gianluca Regni         : ADLD/ADEX                                     
  Tobias Risthaus        : pre 6.0 range-separated hybrid DFT and stability analysis
  Lukas Wittmann         : regularized MP2, r2SCAN double-hybrids, wr2SCAN        
                                                                         
We gratefully acknowledge several colleagues who have allowed us to      
interface, adapt or use parts of their codes:                            
  Ed Valeev, F. Pavosevic, A. Kumar             : LibInt (2-el integral package), F12 methods 
  Garnet Chan, S. Sharma, J. Yang, R. Olivares  : DMRG                   
  Ulf Ekstrom                                   : XCFun DFT Library      
  Mihaly Kallay                                 : mrcc  (arbitrary order and MRCC methods)
  Frank Weinhold                                : gennbo (NPA and NBO analysis)           
  Simon Mueller                                 : openCOSMO-RS                            
  Christopher J. Cramer and Donald G. Truhlar   : smd solvation model                     
  S Lehtola, MJT Oliveira, MAL Marques          : LibXC Library                           
  Liviu Ungur et al                             : ANISO software                          


 Your calculation uses the libint2 library for the computation of 2-el integrals
 For citations please refer to: http://libint.valeyev.net

 Your ORCA version has been built with support for libXC version: 7.0.0
 For citations please refer to: https://libxc.gitlab.io

 This ORCA versions uses:
   CBLAS   interface :  Fast vector & matrix operations
   LAPACKE interface :  Fast linear algebra routines
   SCALAPACK package :  Parallel linear algebra routines
   Shared memory     :  Shared parallel matrices
   BLAS/LAPACK       :  OpenBLAS 0.3.29  USE64BITINT DYNAMIC_ARCH NO_AFFINITY Zen SINGLE_THREADED
        Core in use  :  Zen
   Copyright (c) 2011-2014, The OpenBLAS Project


  ***********************************
  * Starting time: Mon Apr 13 20:46:35 2026
  * Host name:     ps
  * Process ID:    313927
  * Working dir.:  /mnt/sda2/szd/Tong_lab/dieletric_charge/production_pipline_v4
  ***********************************

NOTE: MaxCore=7000 MB was set to SCF,MP2,MDCI,CIPSI,MRCI,RASCI and CIS
      => If you want to overwrite this, your respective input block should be placed after the MaxCore statement
Warning: RI is on but no J-basis has been assigned. Assigning Def2/J (nothing to worry about!)
================================================================================

----- Orbital basis set information -----
Your calculation utilizes the basis: 6-31G*
   H-He, Li-Ne : W. J. Hehre, R. Ditchfield and J.A. Pople, J. Chem. Phys. 56, 2257 (1972).
                 Note: He and Ne are unpublished basis sets taken from the Gaussian program.
                 Note: Li and B from J. D. Dill and J. A. Pople, J. Chem. Phys. 62, 2921 (1975).
   Na - Ar     : M. M. Francl, W. J. Pietro, W. J. Hehre, J. S. Binkley, M. S. Gordon, 
                 D. J. DeFrees and J. A. Pople, J. Chem. Phys. 77, 3654 (1982).
   Sc - Zn     : V. A. Rassolov, J. A. Pople, M. A. Ratner, and T. L. Windus, J. Chem. Phys. 109, 1223 (1998).
   K,Ca,Ga-Kr  : V.A. Rassolov, M.A. Ratner, J.A. Pople, P.C. Redfern, and L.A. Curtiss, J. Comput. Chem. 22, 976 (2001).
----- AuxJ basis set information -----
Your calculation utilizes the auxiliary basis: def2/J
   H-Rn: F. Weigend, Phys. Chem. Chem. Phys. 8, 1057 (2006).
   Fr-Lr: K. Eichkorn, F. Weigend, O. Treutler, R. Ahlrichs; Theor. Chem. Acc. 97, 119 (1997).

================================================================================
                                        WARNINGS
                       Please study these warnings very carefully!
================================================================================


================================================================================
                                       INPUT FILE
================================================================================
NAME = temp/temp_2RVD/2RVD_gas.inp
|  1> ! B3LYP 6-31G*
|  2> %pal
|  3> nprocs 32
|  4> end
|  5> %maxcore 7000
|  6> * xyz -2 1
|  7> N 1.328 0.000 0.000
|  8> C 2.093 0.001 -1.242
|  9> C 1.587 -1.079 -2.194
| 10> O 1.855 -2.266 -2.003
| 11> C 3.579 -0.216 -0.951
| 12> C 4.421 -0.385 -2.195
| 13> C 4.757 0.708 -2.984
| 14> C 4.880 -1.638 -2.582
| 15> C 5.526 0.558 -4.122
| 16> C 5.650 -1.797 -3.717
| 17> C 5.970 -0.697 -4.484
| 18> O 6.736 -0.851 -5.617
| 19> H 1.807 0.001 0.855
| 20> H 1.965 0.966 -1.709
| 21> H 3.960 0.634 -0.406
| 22> H 3.694 -1.105 -0.348
| 23> H 4.408 1.689 -2.697
| 24> H 4.626 -2.499 -1.979
| 25> H 5.777 1.420 -4.722
| 26> H 5.998 -2.780 -4.002
| 27> H 0.712 0.741 0.181
| 28> H 0.715 -0.743 0.182
| 29> H 6.269 -1.470 -6.246
| 30> N 0.854 -0.658 -3.218
| 31> C 0.308 -1.588 -4.200
| 32> C 1.400 -2.496 -4.757
| 33> O 2.550 -2.082 -4.908
| 34> C -0.364 -0.821 -5.341
| 35> C -1.148 -1.705 -6.285
| 36> C -2.231 -2.450 -5.833
| 37> C -0.805 -1.796 -7.628
| 38> C -2.949 -3.259 -6.692
| 39> C -1.519 -2.602 -8.494
| 40> C -2.590 -3.331 -8.021
| 41> O -3.302 -4.136 -8.881
| 42> H 0.674 0.300 -3.317
| 43> H -0.433 -2.197 -3.704
| 44> H -1.045 -0.095 -4.925
| 45> H 0.393 -0.310 -5.916
| 46> H -2.510 -2.391 -4.791
| 47> H 0.035 -1.224 -7.995
| 48> H -3.788 -3.830 -6.322
| 49> H -1.237 -2.659 -9.535
| 50> H -3.078 -5.091 -8.696
| 51> N 1.032 -3.736 -5.060
| 52> C 1.978 -4.704 -5.602
| 53> C 1.614 -5.076 -7.036
| 54> O 1.121 -6.170 -7.313
| 55> C 2.013 -5.959 -4.729
| 56> C 3.165 -6.879 -5.083
| 57> O 4.257 -6.713 -4.501
| 58> O 2.975 -7.765 -5.943
| 59> H 0.100 -4.006 -4.917
| 60> H 2.957 -4.248 -5.600
| 61> H 2.115 -5.667 -3.694
| 62> H 1.089 -6.503 -4.856
| 63> N 1.860 -4.146 -7.970
| 64> C 1.565 -4.353 -9.391
| 65> C 2.491 -5.382 -10.031
| 66> O 2.200 -5.908 -11.104
| 67> C 1.795 -2.970 -10.006
| 68> C 2.760 -2.303 -9.088
| 69> C 2.447 -2.820 -7.711
| 70> H 0.538 -4.650 -9.544
| 71> H 2.206 -3.080 -11.000
| 72> H 0.860 -2.433 -10.054
| 73> H 3.770 -2.562 -9.365
| 74> H 2.621 -1.232 -9.126
| 75> H 3.350 -2.905 -7.126
| 76> H 1.735 -2.174 -7.219
| 77> N 3.607 -5.663 -9.365
| 78> C 4.575 -6.629 -9.871
| 79> C 3.938 -8.007 -10.026
| 80> O 3.824 -8.531 -11.134
| 81> C 5.781 -6.714 -8.933
| 82> C 6.800 -7.763 -9.347
| 83> C 8.209 -7.412 -8.910
| 84> O 8.853 -6.587 -9.591
| 85> O 8.666 -7.962 -7.886
| 86> H 3.783 -5.209 -8.514
| 87> H 4.907 -6.289 -10.840
| 88> H 6.273 -5.753 -8.911
| 89> H 5.432 -6.953 -7.940
| 90> H 6.526 -8.707 -8.900
| 91> H 6.785 -7.857 -10.422
| 92> N 3.524 -8.590 -8.905
| 93> C 2.901 -9.908 -8.914
| 94> C 1.434 -9.819 -9.319
| 95> O 1.048 -10.279 -10.393
| 96> C 3.001 -10.586 -7.535
| 97> O 4.374 -10.711 -7.148
| 98> C 2.349 -11.960 -7.559
| 99> H 3.643 -8.122 -8.052
|100> H 3.427 -10.520 -9.632
|101> H 2.485 -9.972 -6.810
|102> H 2.202 -12.270 -8.582
|103> H 1.394 -11.915 -7.057
|104> H 2.987 -12.670 -7.055
|105> H 4.927 -9.990 -7.580
|106> N 0.620 -9.224 -8.452
|107> C -0.795 -9.085 -8.739
|108> C -1.649 -9.149 -7.488
|109> O -2.715 -9.766 -7.485
|110> H 0.985 -8.876 -7.611
|111> H -0.962 -8.137 -9.227
|112> H -1.095 -9.880 -9.406
|113> N -1.180 -8.512 -6.420
|114> C -1.906 -8.502 -5.156
|115> C -2.126 -7.077 -4.660
|116> O -1.182 -6.296 -4.550
|117> C -1.158 -9.301 -4.072
|118> O -0.791 -10.589 -4.579
|119> C -2.021 -9.466 -2.830
|120> H -0.325 -8.038 -6.484
|121> H -2.867 -8.968 -5.319
|122> H -0.263 -8.760 -3.801
|123> H -3.053 -9.585 -3.122
|124> H -1.922 -8.592 -2.204
|125> H -1.699 -10.339 -2.282
|126> H -0.100 -10.496 -5.304
|127> N -3.377 -6.747 -4.362
|128> C -3.721 -5.415 -3.876
|129> C -3.164 -5.186 -2.475
|130> O -3.769 -5.592 -1.483
|131> C -5.239 -5.227 -3.872
|132> C -5.680 -3.939 -4.500
|133> C -6.525 -3.793 -5.563
|134> C -5.296 -2.618 -4.105
|135> N -6.689 -2.460 -5.852
|136> C -5.947 -1.719 -4.972
|137> C -4.467 -2.107 -3.103
|138> C -5.792 -0.339 -4.866
|139> C -4.315 -0.737 -2.999
|140> C -4.975 0.134 -3.876
|141> H -4.088 -7.414 -4.470
|142> H -3.280 -4.694 -4.549
|143> H -5.697 -6.038 -4.418
|144> H -5.593 -5.239 -2.851
|145> H -6.987 -4.614 -6.089
|146> H -7.250 -2.099 -6.572
|147> H -3.950 -2.762 -2.418
|148> H -6.295 0.346 -5.533
|149> H -3.678 -0.324 -2.231
|150> H -4.827 1.196 -3.757
|151> N -2.010 -4.533 -2.402
|152> C -1.371 -4.252 -1.122
|153> C -1.425 -2.762 -0.801
|154> O -1.516 -2.370 0.361
|155> C 0.083 -4.729 -1.138
|156> C 0.257 -6.158 -0.677
|157> C 0.281 -6.474 0.676
|158> C 0.396 -7.193 -1.594
|159> C 0.440 -7.779 1.102
|160> C 0.554 -8.500 -1.177
|161> C 0.576 -8.788 0.172
|162> O 0.734 -10.089 0.592
|163> H -1.576 -4.234 -3.228
|164> H -1.908 -4.794 -0.357
|165> H 0.467 -4.657 -2.144
|166> H 0.669 -4.096 -0.488
|167> H 0.174 -5.681 1.402
|168> H 0.378 -6.964 -2.650
|169> H 0.457 -8.005 2.158
|170> H 0.661 -9.291 -1.905
|171> O -1.392 -1.790 -1.558
|172> H 0.498 -10.706 -0.157
|173> *
|174> 
|175>                          ****END OF INPUT****
================================================================================

                       ****************************
                       * Single Point Calculation *
                       ****************************

---------------------------------
CARTESIAN COORDINATES (ANGSTROEM)
---------------------------------
  N      1.328000    0.000000    0.000000
  C      2.093000    0.001000   -1.242000
  C      1.587000   -1.079000   -2.194000
  O      1.855000   -2.266000   -2.003000
  C      3.579000   -0.216000   -0.951000
  C      4.421000   -0.385000   -2.195000
  C      4.757000    0.708000   -2.984000
  C      4.880000   -1.638000   -2.582000
  C      5.526000    0.558000   -4.122000
  C      5.650000   -1.797000   -3.717000
  C      5.970000   -0.697000   -4.484000
  O      6.736000   -0.851000   -5.617000
  H      1.807000    0.001000    0.855000
  H      1.965000    0.966000   -1.709000
  H      3.960000    0.634000   -0.406000
  H      3.694000   -1.105000   -0.348000
  H      4.408000    1.689000   -2.697000
  H      4.626000   -2.499000   -1.979000
  H      5.777000    1.420000   -4.722000
  H      5.998000   -2.780000   -4.002000
  H      0.712000    0.741000    0.181000
  H      0.715000   -0.743000    0.182000
  H      6.269000   -1.470000   -6.246000
  N      0.854000   -0.658000   -3.218000
  C      0.308000   -1.588000   -4.200000
  C      1.400000   -2.496000   -4.757000
  O      2.550000   -2.082000   -4.908000
  C     -0.364000   -0.821000   -5.341000
  C     -1.148000   -1.705000   -6.285000
  C     -2.231000   -2.450000   -5.833000
  C     -0.805000   -1.796000   -7.628000
  C     -2.949000   -3.259000   -6.692000
  C     -1.519000   -2.602000   -8.494000
  C     -2.590000   -3.331000   -8.021000
  O     -3.302000   -4.136000   -8.881000
  H      0.674000    0.300000   -3.317000
  H     -0.433000   -2.197000   -3.704000
  H     -1.045000   -0.095000   -4.925000
  H      0.393000   -0.310000   -5.916000
  H     -2.510000   -2.391000   -4.791000
  H      0.035000   -1.224000   -7.995000
  H     -3.788000   -3.830000   -6.322000
  H     -1.237000   -2.659000   -9.535000
  H     -3.078000   -5.091000   -8.696000
  N      1.032000   -3.736000   -5.060000
  C      1.978000   -4.704000   -5.602000
  C      1.614000   -5.076000   -7.036000
  O      1.121000   -6.170000   -7.313000
  C      2.013000   -5.959000   -4.729000
  C      3.165000   -6.879000   -5.083000
  O      4.257000   -6.713000   -4.501000
  O      2.975000   -7.765000   -5.943000
  H      0.100000   -4.006000   -4.917000
  H      2.957000   -4.248000   -5.600000
  H      2.115000   -5.667000   -3.694000
  H      1.089000   -6.503000   -4.856000
  N      1.860000   -4.146000   -7.970000
  C      1.565000   -4.353000   -9.391000
  C      2.491000   -5.382000  -10.031000
  O      2.200000   -5.908000  -11.104000
  C      1.795000   -2.970000  -10.006000
  C      2.760000   -2.303000   -9.088000
  C      2.447000   -2.820000   -7.711000
  H      0.538000   -4.650000   -9.544000
  H      2.206000   -3.080000  -11.000000
  H      0.860000   -2.433000  -10.054000
  H      3.770000   -2.562000   -9.365000
  H      2.621000   -1.232000   -9.126000
  H      3.350000   -2.905000   -7.126000
  H      1.735000   -2.174000   -7.219000
  N      3.607000   -5.663000   -9.365000
  C      4.575000   -6.629000   -9.871000
  C      3.938000   -8.007000  -10.026000
  O      3.824000   -8.531000  -11.134000
  C      5.781000   -6.714000   -8.933000
  C      6.800000   -7.763000   -9.347000
  C      8.209000   -7.412000   -8.910000
  O      8.853000   -6.587000   -9.591000
  O      8.666000   -7.962000   -7.886000
  H      3.783000   -5.209000   -8.514000
  H      4.907000   -6.289000  -10.840000
  H      6.273000   -5.753000   -8.911000
  H      5.432000   -6.953000   -7.940000
  H      6.526000   -8.707000   -8.900000
  H      6.785000   -7.857000  -10.422000
  N      3.524000   -8.590000   -8.905000
  C      2.901000   -9.908000   -8.914000
  C      1.434000   -9.819000   -9.319000
  O      1.048000  -10.279000  -10.393000
  C      3.001000  -10.586000   -7.535000
  O      4.374000  -10.711000   -7.148000
  C      2.349000  -11.960000   -7.559000
  H      3.643000   -8.122000   -8.052000
  H      3.427000  -10.520000   -9.632000
  H      2.485000   -9.972000   -6.810000
  H      2.202000  -12.270000   -8.582000
  H      1.394000  -11.915000   -7.057000
  H      2.987000  -12.670000   -7.055000
  H      4.927000   -9.990000   -7.580000
  N      0.620000   -9.224000   -8.452000
  C     -0.795000   -9.085000   -8.739000
  C     -1.649000   -9.149000   -7.488000
  O     -2.715000   -9.766000   -7.485000
  H      0.985000   -8.876000   -7.611000
  H     -0.962000   -8.137000   -9.227000
  H     -1.095000   -9.880000   -9.406000
  N     -1.180000   -8.512000   -6.420000
  C     -1.906000   -8.502000   -5.156000
  C     -2.126000   -7.077000   -4.660000
  O     -1.182000   -6.296000   -4.550000
  C     -1.158000   -9.301000   -4.072000
  O     -0.791000  -10.589000   -4.579000
  C     -2.021000   -9.466000   -2.830000
  H     -0.325000   -8.038000   -6.484000
  H     -2.867000   -8.968000   -5.319000
  H     -0.263000   -8.760000   -3.801000
  H     -3.053000   -9.585000   -3.122000
  H     -1.922000   -8.592000   -2.204000
  H     -1.699000  -10.339000   -2.282000
  H     -0.100000  -10.496000   -5.304000
  N     -3.377000   -6.747000   -4.362000
  C     -3.721000   -5.415000   -3.876000
  C     -3.164000   -5.186000   -2.475000
  O     -3.769000   -5.592000   -1.483000
  C     -5.239000   -5.227000   -3.872000
  C     -5.680000   -3.939000   -4.500000
  C     -6.525000   -3.793000   -5.563000
  C     -5.296000   -2.618000   -4.105000
  N     -6.689000   -2.460000   -5.852000
  C     -5.947000   -1.719000   -4.972000
  C     -4.467000   -2.107000   -3.103000
  C     -5.792000   -0.339000   -4.866000
  C     -4.315000   -0.737000   -2.999000
  C     -4.975000    0.134000   -3.876000
  H     -4.088000   -7.414000   -4.470000
  H     -3.280000   -4.694000   -4.549000
  H     -5.697000   -6.038000   -4.418000
  H     -5.593000   -5.239000   -2.851000
  H     -6.987000   -4.614000   -6.089000
  H     -7.250000   -2.099000   -6.572000
  H     -3.950000   -2.762000   -2.418000
  H     -6.295000    0.346000   -5.533000
  H     -3.678000   -0.324000   -2.231000
  H     -4.827000    1.196000   -3.757000
  N     -2.010000   -4.533000   -2.402000
  C     -1.371000   -4.252000   -1.122000
  C     -1.425000   -2.762000   -0.801000
  O     -1.516000   -2.370000    0.361000
  C      0.083000   -4.729000   -1.138000
  C      0.257000   -6.158000   -0.677000
  C      0.281000   -6.474000    0.676000
  C      0.396000   -7.193000   -1.594000
  C      0.440000   -7.779000    1.102000
  C      0.554000   -8.500000   -1.177000
  C      0.576000   -8.788000    0.172000
  O      0.734000  -10.089000    0.592000
  H     -1.576000   -4.234000   -3.228000
  H     -1.908000   -4.794000   -0.357000
  H      0.467000   -4.657000   -2.144000
  H      0.669000   -4.096000   -0.488000
  H      0.174000   -5.681000    1.402000
  H      0.378000   -6.964000   -2.650000
  H      0.457000   -8.005000    2.158000
  H      0.661000   -9.291000   -1.905000
  O     -1.392000   -1.790000   -1.558000
  H      0.498000  -10.706000   -0.157000

----------------------------
CARTESIAN COORDINATES (A.U.)
----------------------------
  NO LB      ZA    FRAG     MASS         X           Y           Z
   0 N     7.0000    0    14.007    2.509556    0.000000    0.000000
   1 C     6.0000    0    12.011    3.955197    0.001890   -2.347040
   2 C     6.0000    0    12.011    2.998995   -2.039014   -4.146059
   3 O     8.0000    0    15.999    3.505442   -4.282119   -3.785121
   4 C     6.0000    0    12.011    6.763330   -0.408181   -1.797130
   5 C     6.0000    0    12.011    8.354479   -0.727545   -4.147949
   6 C     6.0000    0    12.011    8.989427    1.337926   -5.638943
   7 C     6.0000    0    12.011    9.221864   -3.095371   -4.879273
   8 C     6.0000    0    12.011   10.442627    1.054467   -7.789451
   9 C     6.0000    0    12.011   10.676953   -3.395838   -7.024112
  10 C     6.0000    0    12.011   11.281665   -1.317139   -8.473532
  11 O     8.0000    0    15.999   12.729195   -1.608157  -10.614592
  12 H     1.0000    0     1.008    3.414735    0.001890    1.615716
  13 H     1.0000    0     1.008    3.713312    1.825475   -3.229542
  14 H     1.0000    0     1.008    7.483315    1.198086   -0.767229
  15 H     1.0000    0     1.008    6.980648   -2.088147   -0.657625
  16 H     1.0000    0     1.008    8.329913    3.191747   -5.096591
  17 H     1.0000    0     1.008    8.741873   -4.722426   -3.739768
  18 H     1.0000    0     1.008   10.916948    2.683411   -8.923287
  19 H     1.0000    0     1.008   11.334577   -5.253439   -7.562684
  20 H     1.0000    0     1.008    1.345485    1.400287    0.342040
  21 H     1.0000    0     1.008    1.351154   -1.404067    0.343930
  22 H     1.0000    0     1.008   11.846693   -2.777897  -11.803229
  23 N     7.0000    0    14.007    1.613826   -1.243440   -6.081139
  24 C     6.0000    0    12.011    0.582036   -3.000885   -7.936850
  25 C     6.0000    0    12.011    2.645617   -4.716756   -8.989427
  26 O     8.0000    0    15.999    4.818802   -3.934410   -9.274776
  27 C     6.0000    0    12.011   -0.687860   -1.551465  -10.093027
  28 C     6.0000    0    12.011   -2.169406   -3.221983  -11.876929
  29 C     6.0000    0    12.011   -4.215979   -4.629829  -11.022773
  30 C     6.0000    0    12.011   -1.521230   -3.393948  -14.414831
  31 C     6.0000    0    12.011   -5.572802   -6.158617  -12.646047
  32 C     6.0000    0    12.011   -2.870494   -4.917067  -16.051334
  33 C     6.0000    0    12.011   -4.894391   -6.294678  -15.157493
  34 O     8.0000    0    15.999   -6.239876   -7.815907  -16.782658
  35 H     1.0000    0     1.008    1.273675    0.566918   -6.268222
  36 H     1.0000    0     1.008   -0.818251   -4.151728   -6.999546
  37 H     1.0000    0     1.008   -1.974764   -0.179524   -9.306901
  38 H     1.0000    0     1.008    0.742662   -0.585815  -11.179620
  39 H     1.0000    0     1.008   -4.743213   -4.518335   -9.053678
  40 H     1.0000    0     1.008    0.066140   -2.313025  -15.108360
  41 H     1.0000    0     1.008   -7.158283   -7.237651  -11.946849
  42 H     1.0000    0     1.008   -2.337591   -5.024782  -18.018539
  43 H     1.0000    0     1.008   -5.816577   -9.620596  -16.433058
  44 N     7.0000    0    14.007    1.950197   -7.060017   -9.562014
  45 C     6.0000    0    12.011    3.737878   -8.889272  -10.586246
  46 C     6.0000    0    12.011    3.050018   -9.592250  -13.296113
  47 O     8.0000    0    15.999    2.118383  -11.659610  -13.819567
  48 C     6.0000    0    12.011    3.804019  -11.260878   -8.936515
  49 C     6.0000    0    12.011    5.980983  -12.999426   -9.605478
  50 O     8.0000    0    15.999    8.044564  -12.685732   -8.505657
  51 O     8.0000    0    15.999    5.621935  -14.673723  -11.230642
  52 H     1.0000    0     1.008    0.188973   -7.570243   -9.291783
  53 H     1.0000    0     1.008    5.587920   -8.027557  -10.582466
  54 H     1.0000    0     1.008    3.996771  -10.709078   -6.980648
  55 H     1.0000    0     1.008    2.057912  -12.288889   -9.176510
  56 N     7.0000    0    14.007    3.514891   -7.834805  -15.061117
  57 C     6.0000    0    12.011    2.957421   -8.225978  -17.746418
  58 C     6.0000    0    12.011    4.707308  -10.170506  -18.955843
  59 O     8.0000    0    15.999    4.157397  -11.164502  -20.983519
  60 C     6.0000    0    12.011    3.392058   -5.612487  -18.908600
  61 C     6.0000    0    12.011    5.215644   -4.352039  -17.173831
  62 C     6.0000    0    12.011    4.624160   -5.329028  -14.571678
  63 H     1.0000    0     1.008    1.016673   -8.787227  -18.035546
  64 H     1.0000    0     1.008    4.168736   -5.820356  -20.786987
  65 H     1.0000    0     1.008    1.625164   -4.597704  -18.999307
  66 H     1.0000    0     1.008    7.124268   -4.841478  -17.697285
  67 H     1.0000    0     1.008    4.952972   -2.328143  -17.245641
  68 H     1.0000    0     1.008    6.330583   -5.489654  -13.466188
  69 H     1.0000    0     1.008    3.278675   -4.108265  -13.641933
  70 N     7.0000    0    14.007    6.816242  -10.701519  -17.697285
  71 C     6.0000    0    12.011    8.645497  -12.526995  -18.653487
  72 C     6.0000    0    12.011    7.441742  -15.131037  -18.946394
  73 O     8.0000    0    15.999    7.226313  -16.121254  -21.040211
  74 C     6.0000    0    12.011   10.924507  -12.687621  -16.880924
  75 C     6.0000    0    12.011   12.850138  -14.669944  -17.663270
  76 C     6.0000    0    12.011   15.512762  -14.006650  -16.837460
  77 O     8.0000    0    15.999   16.729745  -12.447626  -18.124363
  78 O     8.0000    0    15.999   16.376367  -15.045999  -14.902380
  79 H     1.0000    0     1.008    7.148834   -9.843583  -16.089128
  80 H     1.0000    0     1.008    9.272886  -11.884488  -20.484631
  81 H     1.0000    0     1.008   11.854252  -10.871594  -16.839350
  82 H     1.0000    0     1.008   10.264992  -13.139266  -15.004426
  83 H     1.0000    0     1.008   12.332353  -16.453845  -16.818563
  84 H     1.0000    0     1.008   12.821792  -14.847578  -19.694726
  85 N     7.0000    0    14.007    6.659395  -16.232747  -16.828011
  86 C     6.0000    0    12.011    5.482096  -18.723407  -16.845019
  87 C     6.0000    0    12.011    2.709867  -18.555221  -17.610358
  88 O     8.0000    0    15.999    1.980433  -19.424495  -19.639924
  89 C     6.0000    0    12.011    5.671068  -20.004641  -14.239086
  90 O     8.0000    0    15.999    8.265662  -20.240857  -13.507762
  91 C     6.0000    0    12.011    4.438967  -22.601125  -14.284440
  92 H     1.0000    0     1.008    6.884272  -15.348356  -15.216075
  93 H     1.0000    0     1.008    6.476091  -19.879919  -18.201842
  94 H     1.0000    0     1.008    4.695969  -18.844349  -12.869035
  95 H     1.0000    0     1.008    4.161177  -23.186940  -16.217630
  96 H     1.0000    0     1.008    2.634278  -22.516087  -13.335797
  97 H     1.0000    0     1.008    5.644612  -23.942830  -13.332018
  98 H     1.0000    0     1.008    9.310681  -18.878364  -14.324124
  99 N     7.0000    0    14.007    1.171630  -17.430834  -15.971965
 100 C     6.0000    0    12.011   -1.502332  -17.168162  -16.514317
 101 C     6.0000    0    12.011   -3.116158  -17.289104  -14.150269
 102 O     8.0000    0    15.999   -5.130606  -18.455065  -14.144600
 103 H     1.0000    0     1.008    1.861380  -16.773209  -14.382706
 104 H     1.0000    0     1.008   -1.817917  -15.376702  -17.436503
 105 H     1.0000    0     1.008   -2.069250  -18.670494  -17.774764
 106 N     7.0000    0    14.007   -2.229877  -16.085349  -12.132042
 107 C     6.0000    0    12.011   -3.601818  -16.066452   -9.743428
 108 C     6.0000    0    12.011   -4.017558  -13.373592   -8.806124
 109 O     8.0000    0    15.999   -2.233656  -11.897716   -8.598254
 110 C     6.0000    0    12.011   -2.188303  -17.576343   -7.694965
 111 O     8.0000    0    15.999   -1.494773  -20.010310   -8.653056
 112 C     6.0000    0    12.011   -3.819137  -17.888148   -5.347925
 113 H     1.0000    0     1.008   -0.614161  -15.189619  -12.252984
 114 H     1.0000    0     1.008   -5.417845  -16.947064  -10.051453
 115 H     1.0000    0     1.008   -0.496998  -16.554001   -7.182849
 116 H     1.0000    0     1.008   -5.769334  -18.113025   -5.899725
 117 H     1.0000    0     1.008   -3.632054  -16.236527   -4.164956
 118 H     1.0000    0     1.008   -3.210645  -19.537878   -4.312355
 119 H     1.0000    0     1.008   -0.188973  -19.834566  -10.023107
 120 N     7.0000    0    14.007   -6.381605  -12.749982   -8.242985
 121 C     6.0000    0    12.011   -7.031671  -10.232867   -7.324578
 122 C     6.0000    0    12.011   -5.979093   -9.800120   -4.677072
 123 O     8.0000    0    15.999   -7.122378  -10.567349   -2.802464
 124 C     6.0000    0    12.011   -9.900275   -9.877599   -7.317020
 125 C     6.0000    0    12.011  -10.733644   -7.443631   -8.503768
 126 C     6.0000    0    12.011  -12.330463   -7.167731  -10.512546
 127 C     6.0000    0    12.011  -10.007990   -4.947303   -7.757326
 128 N     7.0000    0    14.007  -12.640378   -4.648726  -11.058677
 129 C     6.0000    0    12.011  -11.238201   -3.248439   -9.395718
 130 C     6.0000    0    12.011   -8.441407   -3.981653   -5.863820
 131 C     6.0000    0    12.011  -10.945294   -0.640617   -9.195407
 132 C     6.0000    0    12.011   -8.154168   -1.392728   -5.667289
 133 C     6.0000    0    12.011   -9.401388    0.253223   -7.324578
 134 H     1.0000    0     1.008   -7.725200  -14.010430   -8.447076
 135 H     1.0000    0     1.008   -6.198302   -8.870374   -8.596364
 136 H     1.0000    0     1.008  -10.765770  -11.410166   -8.348810
 137 H     1.0000    0     1.008  -10.569238   -9.900275   -5.387609
 138 H     1.0000    0     1.008  -13.203516   -8.719196  -11.506542
 139 H     1.0000    0     1.008  -13.700514   -3.966535  -12.419280
 140 H     1.0000    0     1.008   -7.464418   -5.219424   -4.569358
 141 H     1.0000    0     1.008  -11.895826    0.653845  -10.455855
 142 H     1.0000    0     1.008   -6.950413   -0.612271   -4.215979
 143 H     1.0000    0     1.008   -9.121708    2.260112   -7.099701
 144 N     7.0000    0    14.007   -3.798350   -8.566129   -4.539122
 145 C     6.0000    0    12.011   -2.590815   -8.035116   -2.120273
 146 C     6.0000    0    12.011   -2.692860   -5.219424   -1.513671
 147 O     8.0000    0    15.999   -2.864825   -4.478651    0.682191
 148 C     6.0000    0    12.011    0.156847   -8.936515   -2.150508
 149 C     6.0000    0    12.011    0.485660  -11.636934   -1.279345
 150 C     6.0000    0    12.011    0.531013  -12.234087    1.277455
 151 C     6.0000    0    12.011    0.748332  -13.592800   -3.012223
 152 C     6.0000    0    12.011    0.831479  -14.700180    2.082478
 153 C     6.0000    0    12.011    1.046908  -16.062672   -2.224208
 154 C     6.0000    0    12.011    1.088482  -16.606913    0.325033
 155 O     8.0000    0    15.999    1.387059  -19.065447    1.118718
 156 H     1.0000    0     1.008   -2.978208   -8.001100   -6.100036
 157 H     1.0000    0     1.008   -3.605597   -9.059347   -0.674632
 158 H     1.0000    0     1.008    0.882502   -8.800455   -4.051573
 159 H     1.0000    0     1.008    1.264227   -7.740318   -0.922186
 160 H     1.0000    0     1.008    0.328812  -10.735534    2.649396
 161 H     1.0000    0     1.008    0.714316  -13.160053   -5.007774
 162 H     1.0000    0     1.008    0.863605  -15.127258    4.078029
 163 H     1.0000    0     1.008    1.249109  -17.557446   -3.599928
 164 O     8.0000    0    15.999   -2.630499   -3.382610   -2.944193
 165 H     1.0000    0     1.008    0.941084  -20.231408   -0.296687

--------------------------------
INTERNAL COORDINATES (ANGSTROEM)
--------------------------------
 N      0   0   0     0.000000000000     0.00000000     0.00000000
 C      1   0   0     1.458694621914     0.00000000     0.00000000
 C      2   1   0     1.526020969712   110.90318836     0.00000000
 O      3   2   1     1.231776765490   120.87185884   284.56623518
 C      2   1   3     1.529694740790   110.32775106   237.99046668
 C      5   2   1     1.511641822655   113.60361515   173.43824294
 C      6   5   2     1.389268152662   120.93928911    75.96837171
 C      6   5   2     1.389409586839   120.93426653   256.00876045
 C      7   6   5     1.381631282217   121.12973476   180.01987966
 C      8   6   5     1.380726620298   121.13443782   180.03967467
 C     10   8   6     1.378654779123   119.66247767   359.90209889
 O     11  10   8     1.376285217533   119.86131845   180.07397837
 H      1   2   3     0.980034183077   119.11024040   130.81415311
 H      2   1   3     1.079674951085   107.86170189   119.13052002
 H      5   2   1     1.079206189752   109.10445736   293.82970455
 H      5   2   1     1.080349480492   109.04549127    53.00865490
 H      7   6   5     1.080060646445   119.04681876     0.03468474
 H      8   6   5     1.081409265727   119.01960666     0.03253766
 H      9   7   6     1.079835635641   120.02446593   180.02862688
 H     10   8   6     1.081026364156   120.06345197   179.99475021
 H      1   2   3     0.980458056217   119.08851729   250.81581148
 H      1   2   3     0.980276491608   119.11418680    10.85829435
 H     12  11  10     0.998444289883   109.12720289    59.49758946
 N      3   2   1     1.327820017924   116.08820975   104.52564482
 C     24   3   2     1.458540366257   121.58136491   180.08051871
 C     25  24   3     1.525508767592   110.93953804   307.96529783
 O     26  25  24     1.231542528701   120.87122248   326.01855777
 C     25  24   3     1.530279059518   110.29213728   185.95226043
 C     28  25  24     1.512365035301   113.58325094   189.31717994
 C     29  28  25     1.390042445395   120.94355932    61.53339279
 C     29  28  25     1.389092869466   120.91489486   241.59278049
 C     30  29  28     1.381262466007   121.10976067   180.03395854
 C     31  29  28     1.381806064540   121.10064532   180.02890910
 C     32  30  29     1.378515868607   119.65490664   359.93781505
 O     34  32  30     1.376433434642   119.88062615   179.98005802
 H     24   3   2     0.979778036088   119.29811405     0.00000000
 H     25  24   3     1.079804611955   107.89297320    67.12460533
 H     28  25  24     1.078838727521   109.08553068   309.66712665
 H     28  25  24     1.079256688652   109.05913355    68.90917848
 H     30  29  28     1.080317545910   119.05033576     0.00000000
 H     31  29  28     1.080496645067   119.05646349     0.00000000
 H     32  30  29     1.080213867713   120.02135538   180.03541578
 H     33  31  29     1.080024999711   119.99589734   179.96972704
 H     35  34  32     0.998211400456   109.12643249   286.56093203
 N     26  25  24     1.328470172793   116.13959266   145.98504522
 C     45  26  25     1.457979423723   121.65277287   179.91888342
 C     46  45  26     1.525528105280   110.88696917   246.19457046
 O     47  46  45     1.231508830663   121.57225321   253.43039149
 C     46  45  26     1.529175921861   110.33531060   124.06843314
 C     49  46  45     1.516186004420   112.46311013   191.25269446
 O     50  49  46     1.248496696031   118.36221256    89.68426191
 O     50  49  46     1.249278191597   118.39250582   269.72654983
 H     45  26  25     0.980802222673   119.13867224     0.04419214
 H     46  45  26     1.079991203668   107.88763978     5.15376333
 H     49  46  45     1.080228216628   109.10540236   311.58905774
 H     49  46  45     1.079741172689   109.07190493    70.85940896
 N     47  46  45     1.340810202825   116.22424893    73.35635474
 C     57  47  46     1.465986016304   122.70806293   180.03846467
 C     58  57  47     1.525095734700   112.32483869   290.25934672
 O     59  58  57     1.229913005054   120.73072430   162.78794056
 C     58  57  47     1.530951991409   103.39106739   171.15673784
 C     61  58  57     1.489576449868   104.72996685    25.40652689
 C     57  47  46     1.473066868815   125.09933879     0.10981772
 H     58  57  47     1.079975462684   111.56231082    53.53254402
 H     61  58  57     1.081229392867   109.54245589   145.05892993
 H     61  58  57     1.079304405624   109.70505290   265.67356477
 H     62  61  58     1.078846606335   109.92323465    86.23370073
 H     62  61  58     1.080650729885   109.80255532   207.92997187
 H     63  57  47     1.079286338281   110.96567860    50.64814449
 H     63  57  47     1.079964814242   110.84448160   287.35010162
 N     59  58  57     1.329651458090   116.23209964   342.75365161
 C     71  59  58     1.458154998620   121.55886838   180.02974995
 C     72  71  59     1.526000655308   110.87707099   299.90265503
 O     73  72  71     1.230949227223   120.96326153   115.86600882
 C     72  71  59     1.530197699645   110.32147978   177.86075675
 C     75  72  71     1.519920392652   113.56300677   176.51467629
 C     76  75  72     1.516394078068   112.62506601   151.32695554
 O     77  76  75     1.248648068913   118.35896471   280.24010042
 O     77  76  75     1.248969575290   118.31584364   100.16720928
 H     71  59  58     0.980455506385   119.18000777   359.97429166
 H     72  71  59     1.079252055824   107.88307971    58.90479199
 H     75  72  71     1.079846748386   108.79259854   297.21841318
 H     75  72  71     1.079338223172   108.74872878    55.82257589
 H     76  75  72     1.079824522781   108.69214225   271.70188406
 H     76  75  72     1.079206189752   108.79100309    30.78543908
 N     73  72  71     1.329633784168   116.12172189   295.84295831
 C     86  73  72     1.457852530265   121.61830777   180.13346526
 C     87  86  73     1.524478599391   111.10562894   280.05710008
 O     88  87  86     1.230476330532   120.79232509   111.45136160
 C     87  86  73     1.539910711697   111.39337250   158.27928901
 O     90  87  86     1.431964734203   110.04245323   301.53623678
 C     90  87  86     1.521037803606   110.83983982   180.06725656
 H     86  73  72     0.980200999795   119.11298303     0.00000000
 H     87  86  73     1.080159247519   107.95283327    39.48729834
 H     90  87  86     1.081146151082   108.63114626    60.82144611
 H     92  90  87     1.078998609823   109.44419597    15.35689311
 H     92  90  87     1.079839802934   109.51894310   255.42540034
 H     92  90  87     1.079425773270   109.47808802   135.41133901
 H     91  90  87     1.006118283305   110.38995394    27.12381730
 N     88  87  86     1.329778176990   116.22927382   291.45528428
 C    100  88  87     1.450487848967   120.73237528   179.94511946
 C    101 100  88     1.516051780118   112.47040556   147.32627498
 O    102 101 100     1.231687460357   120.70953566   220.88774672
 H    100  88  87     0.980617152614   119.34740592     0.00000000
 H    101 100  88     1.079229817972   108.94138155   268.09233512
 H    101 100  88     1.080237936753   108.81834554    26.72339233
 N    102 101 100     1.329042512488   116.36444236    40.76932872
 C    107 102 101     1.457694069412   121.62397977   180.16675642
 C    108 107 102     1.524808512568   111.12065590   233.76948867
 O    109 108 107     1.230120725783   120.77748968   307.21246776
 C    108 107 102     1.540441819739   111.39478676   111.99654977
 O    111 108 107     1.432020251253   109.98791496   310.26231783
 C    111 108 107     1.521367148324   110.81093958   188.81468758
 H    107 102 101     0.979692298633   119.16784366     0.13142227
 H    108 107 102     1.080391595673   108.01259288   353.15270208
 H    111 108 107     1.080345777980   108.60544117    69.56891908
 H    113 111 108     1.079096381238   109.48429093    35.64695929
 H    113 111 108     1.079607799157   109.48423473   275.59055511
 H    113 111 108     1.079868973533   109.43975461   155.63603971
 H    112 111 108     1.005860328276   110.37031737    67.25857662
 N    109 108 107     1.327669009957   116.18345529   127.24406701
 C    121 109 108     1.459025702310   121.59018036   179.94549113
 C    122 121 109     1.524956064941   110.91603702   291.19234579
 O    123 122 121     1.230822895465   120.75571933   277.10916041
 C    122 121 109     1.529602562759   110.30781499   169.09231081
 C    125 122 121     1.499269488784   113.35362328   227.96313051
 C    126 125 122     1.365763522723   126.85830214   121.82259542
 C    126 125 122     1.431265873274   126.75423918   301.95476151
 N    127 126 125     1.373792560760   109.95713912   180.10680369
 C    129 127 126     1.368957632653   108.98262576   359.95398512
 C    128 126 125     1.397270911456   133.99734052   359.86632625
 C    130 129 127     1.392717128494   130.21020128   179.98404258
 C    131 128 126     1.382324129862   118.79281661   180.04897482
 C    132 130 129     1.367961256761   117.65604962   180.02156340
 H    121 109 108     0.980853709786   119.29339886     0.00000000
 H    122 121 109     1.080393909646   107.78914398    50.25412291
 H    125 122 121     1.079630029223   109.10817958   348.32471063
 H    125 122 121     1.080694683988   109.03757816   107.63533254
 H    127 126 125     1.078962928001   124.26449081     0.03032880
 H    129 127 126     0.981550813764   125.40870160   180.11049996
 H    131 128 126     1.079601315301   121.14746536     0.07641562
 H    132 130 129     1.080334670368   121.96929815     0.19402950
 H    133 131 128     1.079889809194   119.82850116   180.02528364
 H    134 132 130     1.078846142877   120.14095901   180.06036141
 N    123 122 121     1.327951053315   116.21605336    97.17290466
 C    145 123 122     1.457971879016   121.59450611   180.09458093
 C    146 145 123     1.525141632767   110.95011136   249.86077726
 O    147 146 145     1.229710941644   120.85934728   147.37575631
 C    146 145 123     1.530327089220   110.31410812   127.83136704
 C    149 146 145     1.511568059996   113.63158006   270.21103500
 C    150 149 146     1.389619012535   120.92472538   279.43950708
 C    150 149 146     1.389760770780   120.95273631    99.36793656
 C    151 150 149     1.381948624226   121.12204651   180.00752297
 C    152 150 149     1.380978638502   121.13388661   180.05737595
 C    153 151 150     1.378940535339   119.63185418   359.92661566
 O    155 153 151     1.376214009520   119.81673410   180.02672585
 H    145 123 122     0.979812737211   119.25094469   359.97458021
 H    146 145 123     1.080443427487   107.88431426     9.03694533
 H    149 146 145     1.079201556708   109.08815560    30.56401613
 H    149 146 145     1.080085644752   109.05780697   149.75293103
 H    151 150 149     1.080450831829   119.05331235   359.94462097
 H    152 150 149     1.080694683988   119.03036222     0.00000000
 H    153 151 150     1.080046758247   120.05340200   179.94767617
 H    154 152 150     1.080330504984   120.05368686   180.02836668
 O    147 146 145     1.232445536322   129.81254833   327.41471685
 H    156 155 153     0.998692144757   109.14924522   160.26282558

---------------------------
INTERNAL COORDINATES (A.U.)
---------------------------
 N      0   0   0     0.000000000000     0.00000000     0.00000000
 C      1   0   0     2.756533348441     0.00000000     0.00000000
 C      2   1   0     2.883761707376   110.90318836     0.00000000
 O      3   2   1     2.327720744903   120.87185884   284.56623518
 C      2   1   3     2.890704128592   110.32775106   237.99046668
 C      5   2   1     2.856589057400   113.60361515   173.43824294
 C      6   5   2     2.625336335109   120.93928911    75.96837171
 C      6   5   2     2.625603606970   120.93426653   256.00876045
 C      7   6   5     2.610904741448   121.12973476   180.01987966
 C      8   6   5     2.609195178178   121.13443782   180.03967467
 C     10   8   6     2.605279965765   119.66247767   359.90209889
 O     11  10   8     2.600802143302   119.86131845   180.07397837
 H      1   2   3     1.851996207897   119.11024040   130.81415311
 H      2   1   3     2.040289971205   107.86170189   119.13052002
 H      5   2   1     2.039404140665   109.10445736   293.82970455
 H      5   2   1     2.041564647055   109.04549127    53.00865490
 H      7   6   5     2.041018829808   119.04681876     0.03468474
 H      8   6   5     2.043567350909   119.01960666     0.03253766
 H      9   7   6     2.040593621010   120.02446593   180.02862688
 H     10   8   6     2.042843771803   120.06345197   179.99475021
 H      1   2   3     1.852797212046   119.08851729   250.81581148
 H      1   2   3     1.852454104661   119.11418680    10.85829435
 H     12  11  10     1.886786267856   109.12720289    59.49758946
 N      3   2   1     2.509216189015   116.08820975   104.52564482
 C     24   3   2     2.756241847494   121.58136491   180.08051871
 C     25  24   3     2.882793785645   110.93953804   307.96529783
 O     26  25  24     2.327278101522   120.87122248   326.01855777
 C     25  24   3     2.891808330964   110.29213728   185.95226043
 C     28  25  24     2.857955731236   113.58325094   189.31717994
 C     29  28  25     2.626799536323   120.94355932    61.53339279
 C     29  28  25     2.625005097873   120.91489486   241.59278049
 C     30  29  28     2.610207779818   121.10976067   180.03395854
 C     31  29  28     2.611235032172   121.10064532   180.02890910
 C     32  30  29     2.605017462931   119.65490664   359.93781505
 O     34  32  30     2.601082233046   119.88062615   179.98005802
 H     24   3   2     1.851512160237   119.29811405     0.00000000
 H     25  24   3     2.040534994741   107.89297320    67.12460533
 H     28  25  24     2.038709737684   109.08553068   309.66712665
 H     28  25  24     2.039499569755   109.05913355    68.90917848
 H     30  29  28     2.041504299439   119.05033576     0.00000000
 H     31  29  28     2.041842747796   119.05646349     0.00000000
 H     32  30  29     2.041308376042   120.02135538   180.03541578
 H     33  31  29     2.040951467242   119.99589734   179.96972704
 H     35  34  32     1.886346170620   109.12643249   286.56093203
 N     26  25  24     2.510444803661   116.13959266   145.98504522
 C     45  26  25     2.755181819729   121.65277287   179.91888342
 C     46  45  26     2.882830328579   110.88696917   246.19457046
 O     47  46  45     2.327214421458   121.57225321   253.43039149
 C     46  45  26     2.889723702904   110.33531060   124.06843314
 C     49  46  45     2.865176316439   112.46311013   191.25269446
 O     50  49  46     2.359316834604   118.36221256    89.68426191
 O     50  49  46     2.360793647199   118.39250582   269.72654983
 H     45  26  25     1.853447592393   119.13867224     0.04419214
 H     46  45  26     2.040887601976   107.88763978     5.15376333
 H     49  46  45     2.041335491562   109.10540236   311.58905774
 H     49  46  45     2.040415111901   109.07190493    70.85940896
 N     47  46  45     2.533764080907   116.22424893    73.35635474
 C     57  47  46     2.770312086974   122.70806293   180.03846467
 C     58  57  47     2.882013266594   112.32483869   290.25934672
 O     59  58  57     2.324198748099   120.73072430   162.78794056
 C     58  57  47     2.893079987945   103.39106739   171.15673784
 C     61  58  57     2.814891545788   104.72996685    25.40652689
 C     57  47  46     2.783692959013   125.09933879     0.10981772
 H     58  57  47     2.040857855828   111.56231082    53.53254402
 H     61  58  57     2.043227440465   109.54245589   145.05892993
 H     61  58  57     2.039589741765   109.70505290   265.67356477
 H     62  61  58     2.038724626483   109.92323465    86.23370073
 H     62  61  58     2.042133925904   109.80255532   207.92997187
 H     63  57  47     2.039555599434   110.96567860    50.64814449
 H     63  57  47     2.040837733188   110.84448160   287.35010162
 N     59  58  57     2.512677109359   116.23209964   342.75365161
 C     71  59  58     2.755513608200   121.55886838   180.02974995
 C     72  71  59     2.883723318716   110.87707099   299.90265503
 O     73  72  71     2.326156924213   120.96326153   115.86600882
 C     72  71  59     2.891654583086   110.32147978   177.86075675
 C     75  72  71     2.872233287475   113.56300677   176.51467629
 C     76  75  72     2.865569518649   112.62506601   151.32695554
 O     77  76  75     2.359602887895   118.35896471   280.24010042
 O     77  76  75     2.360210446898   118.31584364   100.16720928
 H     71  59  58     1.852792393562   119.18000777   359.97429166
 H     72  71  59     2.039490814979   107.88307971    58.90479199
 H     75  72  71     2.040614621055   108.79259854   297.21841318
 H     75  72  71     2.039653647668   108.74872878    55.82257589
 H     76  75  72     2.040572620749   108.69214225   271.70188406
 H     76  75  72     2.039404140665   108.79100309    30.78543908
 N     73  72  71     2.512643710486   116.12172189   295.84295831
 C     86  73  72     2.754942025845   121.61830777   180.13346526
 C     87  86  73     2.880847049872   111.10562894   280.05710008
 O     88  87  86     2.325263278978   120.79232509   111.45136160
 C     87  86  73     2.910009515800   111.39337250   158.27928901
 O     90  87  86     2.706021181076   110.04245323   301.53623678
 C     90  87  86     2.874344888157   110.83983982   180.06725656
 H     86  73  72     1.852311445809   119.11298303     0.00000000
 H     87  86  73     2.041205158833   107.95283327    39.48729834
 H     90  87  86     2.043070136289   108.63114626    60.82144611
 H     92  90  87     2.039011871447   109.44419597    15.35689311
 H     92  90  87     2.040601496052   109.51894310   255.42540034
 H     92  90  87     2.039819093377   109.47808802   135.41133901
 H     91  90  87     1.901288013777   110.38995394    27.12381730
 N     88  87  86     2.512916573377   116.22927382   291.45528428
 C    100  88  87     2.741024795128   120.73237528   179.94511946
 C    101 100  88     2.864922669267   112.47040556   147.32627498
 O    102 101 100     2.327551982659   120.70953566   220.88774672
 H    100  88  87     1.853097860665   119.34740592     0.00000000
 H    101 100  88     2.039448791529   108.94138155   268.09233512
 H    101 100  88     2.041353859935   108.81834554    26.72339233
 N    102 101 100     2.511526368941   116.36444236    40.76932872
 C    107 102 101     2.754642578231   121.62397977   180.16675642
 C    108 107 102     2.881470495425   111.12065590   233.76948867
 O    109 108 107     2.324591283390   120.77748968   307.21246776
 C    108 107 102     2.911013164546   111.39478676   111.99654977
 O    111 108 107     2.706126093098   109.98791496   310.26231783
 C    111 108 107     2.874967259477   110.81093958   188.81468758
 H    107 102 101     1.851350139927   119.16784366     0.13142227
 H    108 107 102     2.041644233211   108.01259288   353.15270208
 H    111 108 107     2.041557650321   108.60544117    69.56891908
 H    113 111 108     2.039196632644   109.48429093    35.64695929
 H    113 111 108     2.040163072452   109.48423473   275.59055511
 H    113 111 108     2.040656620497   109.43975461   155.63603971
 H    112 111 108     1.900800549418   110.37031737    67.25857662
 N    109 108 107     2.508930825313   116.18345529   127.24406701
 C    121 109 108     2.757158999717   121.59018036   179.94549113
 C    122 121 109     2.881749329001   110.91603702   291.19234579
 O    123 122 121     2.325918191788   120.75571933   277.10916041
 C    122 121 109     2.890529937359   110.30781499   169.09231081
 C    125 122 121     2.833208734747   113.35362328   227.96313051
 C    126 125 122     2.580919021645   126.85830214   121.82259542
 C    126 125 122     2.704700525316   126.75423918   301.95476151
 N    127 126 125     2.596091704655   109.95713912   180.10680369
 C    129 127 126     2.586955014656   108.98262576   359.95398512
 C    128 126 125     2.640459357546   133.99734052   359.86632625
 C    130 129 127     2.631853954874   130.21020128   179.98404258
 C    131 128 126     2.612214033751   118.79281661   180.04897482
 C    132 130 129     2.585072137094   117.65604962   180.02156340
 H    121 109 108     1.853544888935   119.29339886     0.00000000
 H    122 121 109     2.041648605987   107.78914398    50.25412291
 H    125 122 121     2.040205081189   109.10817958   348.32471063
 H    125 122 121     2.042216987122   109.03757816   107.63533254
 H    127 126 125     2.038944442575   124.26449081     0.03032880
 H    129 127 126     1.854862224541   125.40870160   180.11049996
 H    131 128 126     2.040150819740   121.14746536     0.07641562
 H    132 130 129     2.041536659976   121.96929815     0.19402950
 H    133 131 128     2.040695994188   119.82850116   180.02528364
 H    134 132 130     2.038723750674   120.14095901   180.06036141
 N    123 122 121     2.509463810017   116.21605336    97.17290466
 C    145 123 122     2.755167562298   121.59450611   180.09458093
 C    146 145 123     2.882100001372   110.95011136   249.86077726
 O    147 146 145     2.323816903594   120.85934728   147.37575631
 C    146 145 123     2.891899093946   110.31410812   127.83136704
 C    149 146 145     2.856449666175   113.63158006   270.21103500
 C    150 149 146     2.625999364182   120.92472538   279.43950708
 C    150 149 146     2.626267248442   120.95273631    99.36793656
 C    151 150 149     2.611504430936   121.12204651   180.00752297
 C    152 150 149     2.609671423565   121.13388661   180.05737595
 C    153 151 150     2.605819966753   119.63185418   359.92661566
 O    155 153 151     2.600667579659   119.81673410   180.02672585
 H    145 123 122     1.851577735856   119.25094469   359.97458021
 H    146 145 123     2.041742181146   107.88431426     9.03694533
 H    149 146 145     2.039395385479   109.08815560    30.56401613
 H    149 146 145     2.041066069762   109.05780697   149.75293103
 H    151 150 149     2.041756173324   119.05331235   359.94462097
 H    152 150 149     2.042216987122   119.03036222     0.00000000
 H    153 151 150     2.040992584916   120.05340200   179.94767617
 H    154 152 150     2.041528788541   120.05368686   180.02836668
 O    147 146 145     2.328984538622   129.81254833   327.41471685
 H    156 155 153     1.887254645690   109.14924522   160.26282558

---------------------
BASIS SET INFORMATION
---------------------
There are 4 groups of distinct atoms

 Group   1 Type N   : 10s4p1d contracted to 3s2p1d pattern {631/31/1}
 Group   2 Type C   : 10s4p1d contracted to 3s2p1d pattern {631/31/1}
 Group   3 Type O   : 10s4p1d contracted to 3s2p1d pattern {631/31/1}
 Group   4 Type H   : 4s contracted to 2s pattern {31}

Atom   0N    basis set group =>   1
Atom   1C    basis set group =>   2
Atom   2C    basis set group =>   2
Atom   3O    basis set group =>   3
Atom   4C    basis set group =>   2
Atom   5C    basis set group =>   2
Atom   6C    basis set group =>   2
Atom   7C    basis set group =>   2
Atom   8C    basis set group =>   2
Atom   9C    basis set group =>   2
Atom  10C    basis set group =>   2
Atom  11O    basis set group =>   3
Atom  12H    basis set group =>   4
Atom  13H    basis set group =>   4
Atom  14H    basis set group =>   4
Atom  15H    basis set group =>   4
Atom  16H    basis set group =>   4
Atom  17H    basis set group =>   4
Atom  18H    basis set group =>   4
Atom  19H    basis set group =>   4
Atom  20H    basis set group =>   4
Atom  21H    basis set group =>   4
Atom  22H    basis set group =>   4
Atom  23N    basis set group =>   1
Atom  24C    basis set group =>   2
Atom  25C    basis set group =>   2
Atom  26O    basis set group =>   3
Atom  27C    basis set group =>   2
Atom  28C    basis set group =>   2
Atom  29C    basis set group =>   2
Atom  30C    basis set group =>   2
Atom  31C    basis set group =>   2
Atom  32C    basis set group =>   2
Atom  33C    basis set group =>   2
Atom  34O    basis set group =>   3
Atom  35H    basis set group =>   4
Atom  36H    basis set group =>   4
Atom  37H    basis set group =>   4
Atom  38H    basis set group =>   4
Atom  39H    basis set group =>   4
Atom  40H    basis set group =>   4
Atom  41H    basis set group =>   4
Atom  42H    basis set group =>   4
Atom  43H    basis set group =>   4
Atom  44N    basis set group =>   1
Atom  45C    basis set group =>   2
Atom  46C    basis set group =>   2
Atom  47O    basis set group =>   3
Atom  48C    basis set group =>   2
Atom  49C    basis set group =>   2
Atom  50O    basis set group =>   3
Atom  51O    basis set group =>   3
Atom  52H    basis set group =>   4
Atom  53H    basis set group =>   4
Atom  54H    basis set group =>   4
Atom  55H    basis set group =>   4
Atom  56N    basis set group =>   1
Atom  57C    basis set group =>   2
Atom  58C    basis set group =>   2
Atom  59O    basis set group =>   3
Atom  60C    basis set group =>   2
Atom  61C    basis set group =>   2
Atom  62C    basis set group =>   2
Atom  63H    basis set group =>   4
Atom  64H    basis set group =>   4
Atom  65H    basis set group =>   4
Atom  66H    basis set group =>   4
Atom  67H    basis set group =>   4
Atom  68H    basis set group =>   4
Atom  69H    basis set group =>   4
Atom  70N    basis set group =>   1
Atom  71C    basis set group =>   2
Atom  72C    basis set group =>   2
Atom  73O    basis set group =>   3
Atom  74C    basis set group =>   2
Atom  75C    basis set group =>   2
Atom  76C    basis set group =>   2
Atom  77O    basis set group =>   3
Atom  78O    basis set group =>   3
Atom  79H    basis set group =>   4
Atom  80H    basis set group =>   4
Atom  81H    basis set group =>   4
Atom  82H    basis set group =>   4
Atom  83H    basis set group =>   4
Atom  84H    basis set group =>   4
Atom  85N    basis set group =>   1
Atom  86C    basis set group =>   2
Atom  87C    basis set group =>   2
Atom  88O    basis set group =>   3
Atom  89C    basis set group =>   2
Atom  90O    basis set group =>   3
Atom  91C    basis set group =>   2
Atom  92H    basis set group =>   4
Atom  93H    basis set group =>   4
Atom  94H    basis set group =>   4
Atom  95H    basis set group =>   4
Atom  96H    basis set group =>   4
Atom  97H    basis set group =>   4
Atom  98H    basis set group =>   4
Atom  99N    basis set group =>   1
Atom 100C    basis set group =>   2
Atom 101C    basis set group =>   2
Atom 102O    basis set group =>   3
Atom 103H    basis set group =>   4
Atom 104H    basis set group =>   4
Atom 105H    basis set group =>   4
Atom 106N    basis set group =>   1
Atom 107C    basis set group =>   2
Atom 108C    basis set group =>   2
Atom 109O    basis set group =>   3
Atom 110C    basis set group =>   2
Atom 111O    basis set group =>   3
Atom 112C    basis set group =>   2
Atom 113H    basis set group =>   4
Atom 114H    basis set group =>   4
Atom 115H    basis set group =>   4
Atom 116H    basis set group =>   4
Atom 117H    basis set group =>   4
Atom 118H    basis set group =>   4
Atom 119H    basis set group =>   4
Atom 120N    basis set group =>   1
Atom 121C    basis set group =>   2
Atom 122C    basis set group =>   2
Atom 123O    basis set group =>   3
Atom 124C    basis set group =>   2
Atom 125C    basis set group =>   2
Atom 126C    basis set group =>   2
Atom 127C    basis set group =>   2
Atom 128N    basis set group =>   1
Atom 129C    basis set group =>   2
Atom 130C    basis set group =>   2
Atom 131C    basis set group =>   2
Atom 132C    basis set group =>   2
Atom 133C    basis set group =>   2
Atom 134H    basis set group =>   4
Atom 135H    basis set group =>   4
Atom 136H    basis set group =>   4
Atom 137H    basis set group =>   4
Atom 138H    basis set group =>   4
Atom 139H    basis set group =>   4
Atom 140H    basis set group =>   4
Atom 141H    basis set group =>   4
Atom 142H    basis set group =>   4
Atom 143H    basis set group =>   4
Atom 144N    basis set group =>   1
Atom 145C    basis set group =>   2
Atom 146C    basis set group =>   2
Atom 147O    basis set group =>   3
Atom 148C    basis set group =>   2
Atom 149C    basis set group =>   2
Atom 150C    basis set group =>   2
Atom 151C    basis set group =>   2
Atom 152C    basis set group =>   2
Atom 153C    basis set group =>   2
Atom 154C    basis set group =>   2
Atom 155O    basis set group =>   3
Atom 156H    basis set group =>   4
Atom 157H    basis set group =>   4
Atom 158H    basis set group =>   4
Atom 159H    basis set group =>   4
Atom 160H    basis set group =>   4
Atom 161H    basis set group =>   4
Atom 162H    basis set group =>   4
Atom 163H    basis set group =>   4
Atom 164O    basis set group =>   3
Atom 165H    basis set group =>   4
---------------------------------
AUXILIARY/J BASIS SET INFORMATION
---------------------------------
There are 4 groups of distinct atoms

 Group   1 Type N   : 12s5p4d2f1g contracted to 6s4p3d1f1g pattern {711111/2111/211/2/1}
 Group   2 Type C   : 12s5p4d2f1g contracted to 6s4p3d1f1g pattern {711111/2111/211/2/1}
 Group   3 Type O   : 12s5p4d2f1g contracted to 6s4p3d1f1g pattern {711111/2111/211/2/1}
 Group   4 Type H   : 5s2p1d contracted to 3s1p1d pattern {311/2/1}

Atom   0N    basis set group =>   1
Atom   1C    basis set group =>   2
Atom   2C    basis set group =>   2
Atom   3O    basis set group =>   3
Atom   4C    basis set group =>   2
Atom   5C    basis set group =>   2
Atom   6C    basis set group =>   2
Atom   7C    basis set group =>   2
Atom   8C    basis set group =>   2
Atom   9C    basis set group =>   2
Atom  10C    basis set group =>   2
Atom  11O    basis set group =>   3
Atom  12H    basis set group =>   4
Atom  13H    basis set group =>   4
Atom  14H    basis set group =>   4
Atom  15H    basis set group =>   4
Atom  16H    basis set group =>   4
Atom  17H    basis set group =>   4
Atom  18H    basis set group =>   4
Atom  19H    basis set group =>   4
Atom  20H    basis set group =>   4
Atom  21H    basis set group =>   4
Atom  22H    basis set group =>   4
Atom  23N    basis set group =>   1
Atom  24C    basis set group =>   2
Atom  25C    basis set group =>   2
Atom  26O    basis set group =>   3
Atom  27C    basis set group =>   2
Atom  28C    basis set group =>   2
Atom  29C    basis set group =>   2
Atom  30C    basis set group =>   2
Atom  31C    basis set group =>   2
Atom  32C    basis set group =>   2
Atom  33C    basis set group =>   2
Atom  34O    basis set group =>   3
Atom  35H    basis set group =>   4
Atom  36H    basis set group =>   4
Atom  37H    basis set group =>   4
Atom  38H    basis set group =>   4
Atom  39H    basis set group =>   4
Atom  40H    basis set group =>   4
Atom  41H    basis set group =>   4
Atom  42H    basis set group =>   4
Atom  43H    basis set group =>   4
Atom  44N    basis set group =>   1
Atom  45C    basis set group =>   2
Atom  46C    basis set group =>   2
Atom  47O    basis set group =>   3
Atom  48C    basis set group =>   2
Atom  49C    basis set group =>   2
Atom  50O    basis set group =>   3
Atom  51O    basis set group =>   3
Atom  52H    basis set group =>   4
Atom  53H    basis set group =>   4
Atom  54H    basis set group =>   4
Atom  55H    basis set group =>   4
Atom  56N    basis set group =>   1
Atom  57C    basis set group =>   2
Atom  58C    basis set group =>   2
Atom  59O    basis set group =>   3
Atom  60C    basis set group =>   2
Atom  61C    basis set group =>   2
Atom  62C    basis set group =>   2
Atom  63H    basis set group =>   4
Atom  64H    basis set group =>   4
Atom  65H    basis set group =>   4
Atom  66H    basis set group =>   4
Atom  67H    basis set group =>   4
Atom  68H    basis set group =>   4
Atom  69H    basis set group =>   4
Atom  70N    basis set group =>   1
Atom  71C    basis set group =>   2
Atom  72C    basis set group =>   2
Atom  73O    basis set group =>   3
Atom  74C    basis set group =>   2
Atom  75C    basis set group =>   2
Atom  76C    basis set group =>   2
Atom  77O    basis set group =>   3
Atom  78O    basis set group =>   3
Atom  79H    basis set group =>   4
Atom  80H    basis set group =>   4
Atom  81H    basis set group =>   4
Atom  82H    basis set group =>   4
Atom  83H    basis set group =>   4
Atom  84H    basis set group =>   4
Atom  85N    basis set group =>   1
Atom  86C    basis set group =>   2
Atom  87C    basis set group =>   2
Atom  88O    basis set group =>   3
Atom  89C    basis set group =>   2
Atom  90O    basis set group =>   3
Atom  91C    basis set group =>   2
Atom  92H    basis set group =>   4
Atom  93H    basis set group =>   4
Atom  94H    basis set group =>   4
Atom  95H    basis set group =>   4
Atom  96H    basis set group =>   4
Atom  97H    basis set group =>   4
Atom  98H    basis set group =>   4
Atom  99N    basis set group =>   1
Atom 100C    basis set group =>   2
Atom 101C    basis set group =>   2
Atom 102O    basis set group =>   3
Atom 103H    basis set group =>   4
Atom 104H    basis set group =>   4
Atom 105H    basis set group =>   4
Atom 106N    basis set group =>   1
Atom 107C    basis set group =>   2
Atom 108C    basis set group =>   2
Atom 109O    basis set group =>   3
Atom 110C    basis set group =>   2
Atom 111O    basis set group =>   3
Atom 112C    basis set group =>   2
Atom 113H    basis set group =>   4
Atom 114H    basis set group =>   4
Atom 115H    basis set group =>   4
Atom 116H    basis set group =>   4
Atom 117H    basis set group =>   4
Atom 118H    basis set group =>   4
Atom 119H    basis set group =>   4
Atom 120N    basis set group =>   1
Atom 121C    basis set group =>   2
Atom 122C    basis set group =>   2
Atom 123O    basis set group =>   3
Atom 124C    basis set group =>   2
Atom 125C    basis set group =>   2
Atom 126C    basis set group =>   2
Atom 127C    basis set group =>   2
Atom 128N    basis set group =>   1
Atom 129C    basis set group =>   2
Atom 130C    basis set group =>   2
Atom 131C    basis set group =>   2
Atom 132C    basis set group =>   2
Atom 133C    basis set group =>   2
Atom 134H    basis set group =>   4
Atom 135H    basis set group =>   4
Atom 136H    basis set group =>   4
Atom 137H    basis set group =>   4
Atom 138H    basis set group =>   4
Atom 139H    basis set group =>   4
Atom 140H    basis set group =>   4
Atom 141H    basis set group =>   4
Atom 142H    basis set group =>   4
Atom 143H    basis set group =>   4
Atom 144N    basis set group =>   1
Atom 145C    basis set group =>   2
Atom 146C    basis set group =>   2
Atom 147O    basis set group =>   3
Atom 148C    basis set group =>   2
Atom 149C    basis set group =>   2
Atom 150C    basis set group =>   2
Atom 151C    basis set group =>   2
Atom 152C    basis set group =>   2
Atom 153C    basis set group =>   2
Atom 154C    basis set group =>   2
Atom 155O    basis set group =>   3
Atom 156H    basis set group =>   4
Atom 157H    basis set group =>   4
Atom 158H    basis set group =>   4
Atom 159H    basis set group =>   4
Atom 160H    basis set group =>   4
Atom 161H    basis set group =>   4
Atom 162H    basis set group =>   4
Atom 163H    basis set group =>   4
Atom 164O    basis set group =>   3
Atom 165H    basis set group =>   4


           ************************************************************
           *        Program running with 32 parallel MPI-processes    *
           *              working on a common directory               *
           ************************************************************
------------------------------------------------------------------------------
                             ORCA STARTUP CALCULATIONS
                           -- RI-GTO INTEGRALS CHOSEN --
------------------------------------------------------------------------------
------------------------------------------------------------------------------
                   ___                                                        
                  /   \      - P O W E R E D   B Y -                         
                 /     \                                                     
                 |  |  |   _    _      __       _____    __    __             
                 |  |  |  | |  | |    /  \     |  _  \  |  |  /  |          
                  \  \/   | |  | |   /    \    | | | |  |  | /  /          
                 / \  \   | |__| |  /  /\  \   | |_| |  |  |/  /          
                |  |  |   |  __  | /  /__\  \  |    /   |      \           
                |  |  |   | |  | | |   __   |  |    \   |  |\   \          
                \     /   | |  | | |  |  |  |  | |\  \  |  | \   \       
                 \___/    |_|  |_| |__|  |__|  |_| \__\ |__|  \__/        
                                                                              
                      - O R C A' S   B I G   F R I E N D -                    
                                      &                                       
                       - I N T E G R A L  F E E D E R -                       
                                                                              
 v1 FN, 2020, v2 2021, v3 2022-2024                                           
------------------------------------------------------------------------------


----------------------
SHARK INTEGRAL PACKAGE
----------------------

Number of atoms                             ...    166
Number of basis functions                   ...   1448
Number of shells                            ...    704
Maximum angular momentum                    ...      2
Integral batch strategy                     ... SHARK/LIBINT Hybrid
RI-J (if used) integral strategy            ... SPLIT-RIJ (Revised 2003 algorithm where possible)
Printlevel                                  ...      1
Contraction scheme used                     ... SEGMENTED contraction
Prescreening option                         ... SCHWARTZ
   Thresh                                   ... 1.000e-10
   Tcut                                     ... 1.000e-11
   Tpresel                                  ... 1.000e-11 
Coulomb Range Separation                    ... NOT USED
Exchange Range Separation                   ... NOT USED
Multipole approximations                    ... NOT USED
Finite Nucleus Model                        ... NOT USED
CABS basis                                  ... NOT available
Auxiliary Coulomb fitting basis             ... AVAILABLE
   # of basis functions in Aux-J            ...   5360
   # of shells in Aux-J                     ...   1760
   Maximum angular momentum in Aux-J        ...      4
Auxiliary J/K fitting basis                 ... NOT available
Auxiliary Correlation fitting basis         ... NOT available
Auxiliary 'external' fitting basis          ... NOT available

Checking pre-screening integrals            ... done (  0.0 sec) Dimension = 704
   => SHARK Basis and OBASIS are compatible. Storing Pre-screening
Shell pair information
Shell pair cut-off parameter TPreSel        ...   1.0e-11
Total number of shell pairs                 ...    248160
Shell pairs after pre-screening             ...     87999
Total number of primitive shell pairs       ...   1426000
Primitive shell pairs kept                  ...    224422
          la=0 lb=0:  30424 shell pairs
          la=1 lb=0:  31682 shell pairs
          la=1 lb=1:   8283 shell pairs
          la=2 lb=0:  10781 shell pairs
          la=2 lb=1:   5968 shell pairs
          la=2 lb=2:    861 shell pairs

Checking whether 4 symmetric matrices of dimension 1448 fit in memory
:Max Core in MB      =   7000.00
 MB in use           =    113.26
 MB left             =   6886.74
 MB needed           =     32.02
 Data fit in memory  = YES
Calculating RI/J V-Matrix + Cholesky decomp.... done (  3.6 sec)
Calculating Nuclear repulsion               ... done (  0.0 sec) ENN=  20120.128905754420 Eh

Diagonalization of the overlap matrix:
Smallest eigenvalue                        ... 3.228e-04
Time for diagonalization                   ...    0.184 sec
Threshold for overlap eigenvalues          ... 1.000e-07
Number of eigenvalues below threshold      ... 0
Time for construction of square roots      ...    0.220 sec
Total time needed                          ...    0.427 sec

-------------------
DFT GRID GENERATION
-------------------

General Integration Accuracy     IntAcc      ... 4.388
Radial Grid Type                 RadialGrid  ... OptM3 with GC (2021)
Angular Grid (max. ang.)         AngularGrid ... 4 (Lebedev-302)
Angular grid pruning method      GridPruning ... 4 (adaptive)
Weight generation scheme         WeightScheme... mBecke (2022)
Basis function cutoff            BFCut       ... 1.0000e-10
Integration weight cutoff        WCut        ... 1.0000e-14
Partially contracted basis set               ... off
Rotationally invariant grid construction     ... off
Angular grids for H and He will be reduced by one unit

Total number of grid points                  ...   775484
Total number of batches                      ...    12203
Average number of points per batch           ...       63
Average number of grid points per atom       ...     4672

--------------------
COSX GRID GENERATION
--------------------

GRIDX 1
-------
General Integration Accuracy     IntAcc      ... 3.816
Radial Grid Type                 RadialGrid  ... OptM3 with GC (2021)
Angular Grid (max. ang.)         AngularGrid ... 1 (Lebedev-50)
Angular grid pruning method      GridPruning ... 4 (adaptive)
Weight generation scheme         WeightScheme... mBecke (2022)
Basis function cutoff            BFCut       ... 1.0000e-10
Integration weight cutoff        WCut        ... 1.0000e-14
Partially contracted basis set               ... on
Rotationally invariant grid construction     ... off
Angular grids for H and He will be reduced by one unit

Total number of grid points                  ...    97695
Total number of batches                      ...      851
Average number of points per batch           ...      114
Average number of grid points per atom       ...      589
UseSFitting                                  ... on

GRIDX 2
-------
General Integration Accuracy     IntAcc      ... 4.020
Radial Grid Type                 RadialGrid  ... OptM3 with GC (2021)
Angular Grid (max. ang.)         AngularGrid ... 2 (Lebedev-110)
Angular grid pruning method      GridPruning ... 4 (adaptive)
Weight generation scheme         WeightScheme... mBecke (2022)
Basis function cutoff            BFCut       ... 1.0000e-10
Integration weight cutoff        WCut        ... 1.0000e-14
Partially contracted basis set               ... on
Rotationally invariant grid construction     ... off
Angular grids for H and He will be reduced by one unit

Total number of grid points                  ...   208522
Total number of batches                      ...     1723
Average number of points per batch           ...      121
Average number of grid points per atom       ...     1256
UseSFitting                                  ... on

GRIDX 3
-------
General Integration Accuracy     IntAcc      ... 4.338
Radial Grid Type                 RadialGrid  ... OptM3 with GC (2021)
Angular Grid (max. ang.)         AngularGrid ... 3 (Lebedev-194)
Angular grid pruning method      GridPruning ... 4 (adaptive)
Weight generation scheme         WeightScheme... mBecke (2022)
Basis function cutoff            BFCut       ... 1.0000e-10
Integration weight cutoff        WCut        ... 1.0000e-14
Partially contracted basis set               ... on
Rotationally invariant grid construction     ... off
Angular grids for H and He will be reduced by one unit

Total number of grid points                  ...   451771
Total number of batches                      ...     3615
Average number of points per batch           ...      124
Average number of grid points per atom       ...     2722
UseSFitting                                  ... on
Grids setup in   9.1 sec
Initializing property integral containers    ... done (  0.0 sec)

SHARK setup successfully completed in  14.9 seconds

Maximum memory used throughout the entire STARTUP-calculation: 244.3 MB


           ************************************************************
           *        Program running with 32 parallel MPI-processes    *
           *              working on a common directory               *
           ************************************************************
-------------------------------------------------------------------------------
                                 ORCA GUESS
                   Start orbitals & Density for SCF / CASSCF
-------------------------------------------------------------------------------

------------
SCF SETTINGS
------------
Hamiltonian:
 Density Functional     Method          .... DFT(GTOs)
 Exchange Functional    Exchange        .... B88
   X-Alpha parameter    XAlpha          ....  0.666667
   Becke's b parameter  XBeta           ....  0.004200
 Correlation Functional Correlation     .... LYP
 LDA part of GGA corr.  LDAOpt          .... VWN-5
 Gradients option       PostSCFGGA      .... off
 Hybrid DFT is turned on
   Fraction HF Exchange ScalHFX         ....  0.200000
   Scaling of DF-GGA-X  ScalDFX         ....  0.720000
   Scaling of DF-GGA-C  ScalDFC         ....  0.810000
   Scaling of DF-LDA-C  ScalLDAC        ....  1.000000
   Perturbative correction              ....  0.000000
   NL short-range parameter             ....  4.800000
 RI-approximation to the Coulomb term is turned on
   Number of AuxJ basis functions       .... 5360
   RIJ-COSX (HFX calculated with COS-X)).... on


General Settings:
 Integral files         IntName         .... temp/temp_2RVD/2RVD_gas
 Hartree-Fock type      HFTyp           .... RHF
 Total Charge           Charge          ....   -2
 Multiplicity           Mult            ....    1
 Number of Electrons    NEL             ....  684
 Basis Dimension        Dim             .... 1448
 Nuclear Repulsion      ENuc            ....  20120.1289057544 Eh

Convergence Acceleration:
 AO-DIIS                CNVDIIS         .... on
   Start iteration      DIISMaxIt       ....    12
   Startup error        DIISStart       ....  0.200000
   # of expansion vecs  DIISMaxEq       ....     5
   Bias factor          DIISBfac        ....   1.050
   Max. coefficient     DIISMaxC        ....  10.000
 MO-DIIS                CNVKDIIS        .... off
 Trust-Rad. Augm. Hess. CNVTRAH         .... auto
   Auto Start mean grad. ratio tolernc. ....  1.125000
   Auto Start start iteration           ....    50
   Auto Start num. interpolation iter.  ....    10
   Max. Number of Micro iterations      ....    24
   Max. Number of Macro iterations      .... Maxiter - #DIIS iter
   Number of Davidson start vectors     ....     2
   Converg. threshold    (grad. norm)   ....   5.000e-05
   Grad. Scal. Fac. for Micro threshold ....   0.100
   Minimum threshold for Micro iter.    ....   1.000e-02
   NR start threshold (gradient norm)   ....   1.000e-04
   Initial trust radius                 ....   0.400
   Minimum AH scaling param. (alpha)    ....   1.000
   Maximum AH scaling param. (alpha)    .... 1000.000
   Quad. conv. algorithm                .... NR
   White noise on init. David. guess    .... on
   Maximum white noise                  ....   0.010
   Pseudo random numbers                .... off
   Inactive MOs                         .... canonical
   Orbital update algorithm             .... Taylor
   Preconditioner                       .... Diag
   Full preconditioner red. dimension   ....   250
 SOSCF                 CNVSOSCF           .... on
   Start iteration     SOSCFMaxIt         ....   150
   Startup grad/error  SOSCFStart         ....  0.003300
   Hessian update      SOSCFHessUp        .... L-BFGS
   Autom. constraints  SOSCFAutoConstrain .... off
 Level Shifting         CNVShift        .... on
   Level shift para.    LevelShift      ....    0.2500
   Turn off err/grad.   ShiftErr        ....    0.0010
 Zerner damping         CNVZerner       .... off
 Static damping         CNVDamp         .... on
   Fraction old density DampFac         ....    0.7000
   Max. Damping (<1)    DampMax         ....    0.9800
   Min. Damping (>=0)   DampMin         ....    0.0000
   Turn off err/grad.   DampErr         ....    0.1000

SCF Procedure:
 Maximum # iterations   MaxIter         ....   125
 SCF integral mode      SCFMode         .... Direct
   Integral package                     .... SHARK and LIBINT hybrid scheme
 Reset frequency        DirectResetFreq ....    20
 Integral Threshold     Thresh          ....  1.000e-10 Eh
 Primitive CutOff       TCut            ....  1.000e-11 Eh

Convergence Tolerance:
 Convergence Check Mode ConvCheckMode   .... Total+1el-Energy
 Convergence forced     ConvForced      .... 0
 Energy Change          TolE            ....  1.000e-06 Eh
 1-El. energy change                    ....  1.000e-03 Eh
 Orbital Gradient       TolG            ....  5.000e-05
 Orbital Rotation angle TolX            ....  5.000e-05
 DIIS Error             TolErr          ....  1.000e-06

------------------------------
INITIAL GUESS: MODEL POTENTIAL
------------------------------
Loading Hartree-Fock densities                     ... done
Calculating cut-offs                               ... done
Initializing the effective Hamiltonian             ... done
Setting up the integral package (SHARK)            ... done
Starting the Coulomb interaction                   ... done (   1.0 sec)
Making the grid                                    ... done (   1.0 sec)
Mapping shells                                     ... done
Starting the XC term evaluation                    ... done (   0.1 sec)
  promolecular density results
     # of electrons  =    681.973839409
     EX              =   -577.515852122
     EC              =    -23.661917248
     EX+EC           =   -601.177769370
Transforming the Hamiltonian                       ... done (   0.2 sec)
Diagonalizing the Hamiltonian                      ... done (   0.2 sec)
Back transforming the eigenvectors                 ... done (   0.2 sec)
Now organizing SCF variables                       ... done
                      ------------------
                      INITIAL GUESS DONE (   3.1 sec)
                      ------------------
             **** ENERGY FILE WAS UPDATED (temp/temp_2RVD/2RVD_gas.en.tmp) ****
Finished Guess after   4.2 sec
Maximum memory used throughout the entire GUESS-calculation: 156.0 MB


           ************************************************************
           *        Program running with 32 parallel MPI-processes    *
           *              working on a common directory               *
           ************************************************************

-------------------------------------------------------------------------------------------
                                      ORCA LEAN-SCF
                              memory conserving SCF solver
-------------------------------------------------------------------------------------------

----------------------------------------D-I-I-S--------------------------------------------
Iteration    Energy (Eh)           Delta-E    RMSDP     MaxDP     DIISErr   Damp  Time(sec)
-------------------------------------------------------------------------------------------
               ***  Starting incremental Fock matrix formation  ***

ORCA finished by error termination in LEANSCF
Calling Command: mpirun -np 32 --oversubscribe /opt/orca/bin/orca_leanscf_mpi temp/temp_2RVD/2RVD_gas.gbw temp/temp_2RVD/2RVD_gas 
